#     Step Nr.          Time[fs]        Kin.[a.u.]          Temp[K]            Pot.[a.u.]        Cons Qty[a.u.]        UsedTime[s]
         0            0.000000         0.273612846       300.000000000     -1102.629448594     -1102.355835748         0.000000000
         1            0.500000         0.279633819       306.601634918     -1102.634728487     -1102.356032711      2018.249032520
         2            1.000000         0.278176228       305.003473713     -1102.643688340     -1102.356285322       122.793996926
         3            1.500000         0.280393422       307.434492997     -1102.653080703     -1102.356547289       123.043315757
         4            2.000000         0.282889483       310.171274159     -1102.655862600     -1102.356593452       126.364328116
         5            2.500000         0.294372846       322.762089256     -1102.653391721     -1102.356505399       126.977248129
         6            3.000000         0.293202260       321.478612092     -1102.644027094     -1102.356292113       127.480344065
         7            3.500000         0.275739443       302.331685376     -1102.631056927     -1102.356023130       126.977277655
         8            4.000000         0.264614578       290.133941924     -1102.619771042     -1102.355795899       128.645313017
         9            4.500000         0.268857948       294.786540953     -1102.613634927     -1102.355689469       129.114289515
        10            5.000000         0.262607548       287.933354685     -1102.612082629     -1102.355666725       832.136970833
        11            5.500000         0.288697192       316.539076467     -1102.616775792     -1102.355783250       128.852288865
        12            6.000000         0.295096611       323.555654134     -1102.622813260     -1102.355937950       127.964264940
        13            6.500000         0.289353988       317.259214176     -1102.629250655     -1102.356081233       127.838329710
        14            7.000000         0.287416783       315.135185470     -1102.637410482     -1102.356246228       127.526267931
        15            7.500000         0.310165102       340.077346930     -1102.641761748     -1102.356328622       127.102339599
        16            8.000000         0.323802738       355.030192819     -1102.645349103     -1102.356402515       128.493324544
        17            8.500000         0.301956868       331.077513241     -1102.645418760     -1102.356418530       129.103252664
        18            9.000000         0.286912673       314.582459298     -1102.641734958     -1102.356310656       126.807337143
        19            9.500000         0.276541909       303.211541919     -1102.635703652     -1102.356123440       128.081278022
        20           10.000000         0.260847091       286.003119536     -1102.628436222     -1102.355915126       892.150148448
        21           10.500000         0.250829117       275.019014031     -1102.621372875     -1102.355688604       124.050299007
        22           11.000000         0.252589683       276.949368713     -1102.619839890     -1102.355630752       122.082282759
        23           11.500000         0.254712048       279.276413740     -1102.626571548     -1102.355823251       123.582270835
        24           12.000000         0.265639894       291.258138723     -1102.636526005     -1102.356020668       120.759316564
        25           12.500000         0.277078124       303.799469221     -1102.645826859     -1102.356189502       122.988255370
        26           13.000000         0.276140999       302.771967344     -1102.652591961     -1102.356272544       124.675345119
        27           13.500000         0.297663960       326.370597939     -1102.655384720     -1102.356219451       123.790260158
        28           14.000000         0.292250721       320.435307919     -1102.655692042     -1102.356103565       124.346317701
        29           14.500000         0.281400579       308.538780420     -1102.654888372     -1102.356028025       123.698266592
        30           15.000000         0.286612223       314.253034546     -1102.651854052     -1102.355941964       921.369220912
        31           15.500000         0.301188497       330.235039789     -1102.649497290     -1102.355883179       125.798278034
        32           16.000000         0.299504682       328.388838219     -1102.646731418     -1102.355818637       124.186324421
        33           16.500000         0.291057519       319.127033606     -1102.645976761     -1102.355750903       122.999248810
        34           17.000000         0.291210761       319.295053980     -1102.647476574     -1102.355705892       123.224324171
        35           17.500000         0.303751951       333.045713179     -1102.652982102     -1102.355823547       123.851265896
        36           18.000000         0.299220135       328.076849934     -1102.659956618     -1102.356048442       123.662334584
        37           18.500000         0.316528355       347.054270077     -1102.662878593     -1102.356180240       122.828287102
        38           19.000000         0.312059887       342.154864507     -1102.660507582     -1102.356202008       123.888271272
        39           19.500000         0.316171730       346.663252967     -1102.656115673     -1102.356078685       124.237335019
        40           20.000000         0.299355453       328.225217601     -1102.648878514     -1102.355890093       835.800964586
        41           20.500000         0.290515955       318.533241422     -1102.643145712     -1102.355773629       123.602262095
        42           21.000000         0.292335239       320.527976607     -1102.641775355     -1102.355839829       124.255330797
        43           21.500000         0.292864229       321.107981598     -1102.641696945     -1102.355896983       127.523317173
        44           22.000000         0.298441806       327.223458585     -1102.641498294     -1102.355927731       128.091258850
        45           22.500000         0.281584966       308.740950017     -1102.641249503     -1102.355973007       126.617332242
        46           23.000000         0.268647469       294.555763713     -1102.638733432     -1102.355935123       127.735270444
        47           23.500000         0.272321768       298.584410955     -1102.640558486     -1102.355980954       129.766345117
        48           24.000000         0.280027628       307.033422556     -1102.643886369     -1102.356039317       127.278310861
        49           24.500000         0.277870189       304.667920803     -1102.647866085     -1102.356127491       127.815273128
        50           25.000000         0.275189966       301.729217684     -1102.650936078     -1102.356256634      1150.293765120
        51           25.500000         0.260569407       285.698655714     -1102.652308206     -1102.356346909       128.823302500
        52           26.000000         0.260067903       285.148786102     -1102.653011744     -1102.356342919       127.709308207
        53           26.500000         0.259523824       284.552236394     -1102.650868573     -1102.356222289       129.560273055
        54           27.000000         0.258216561       283.118901724     -1102.649712215     -1102.356088336       127.202336960
        55           27.500000         0.252322957       276.656919568     -1102.649573181     -1102.356007795       129.930272549
        56           28.000000         0.250219224       274.350303125     -1102.654470790     -1102.356129352       128.880341344
        57           28.500000         0.266792766       292.522193684     -1102.663219866     -1102.356395973       129.886311799
        58           29.000000         0.270022295       296.063177828     -1102.667565255     -1102.356510507       128.774267603
        59           29.500000         0.272968396       299.293400089     -1102.671480487     -1102.356565130       122.747338124
        60           30.000000         0.276980269       303.692176295     -1102.671991386     -1102.356537916       945.670235429
        61           30.500000         0.274619786       301.104049797     -1102.671363550     -1102.356500826       125.641308744
        62           31.000000         0.274218381       300.663932521     -1102.668392698     -1102.356435724       126.886275351
        63           31.500000         0.278232801       305.065502826     -1102.666314114     -1102.356430160       125.781328984
        64           32.000000         0.291317859       319.412480537     -1102.662998567     -1102.356351195       125.057259627
        65           32.500000         0.287118339       314.807959572     -1102.660598886     -1102.356288021       126.471340705
        66           33.000000         0.277406894       304.159944898     -1102.656416776     -1102.356161111       126.629294191
        67           33.500000         0.269359451       295.336408691     -1102.654625485     -1102.356095346       125.664267175
        68           34.000000         0.284279324       311.695150794     -1102.655748156     -1102.356119225       128.045336533
        69           34.500000         0.307167002       336.790110299     -1102.663050205     -1102.356274076       129.402272701
        70           35.000000         0.309877738       339.762269572     -1102.668570830     -1102.356387568      1140.034766264
        71           35.500000         0.306403989       335.953513258     -1102.670562621     -1102.356379401       121.831247576
        72           36.000000         0.294675470       323.093898242     -1102.671396058     -1102.356341667       123.787329726
        73           36.500000         0.304358645       333.710916780     -1102.670834857     -1102.356309045       122.685255397
        74           37.000000         0.291807604       319.949456255     -1102.670878157     -1102.356269137       123.295328025
        75           37.500000         0.308475946       338.225288705     -1102.673067446     -1102.356292656       121.679294959
        76           38.000000         0.283414248       310.746646682     -1102.675533624     -1102.356355391       124.788257584
        77           38.500000         0.281646563       308.808486783     -1102.678692285     -1102.356429445       120.776325259
        78           39.000000         0.287676450       315.419895249     -1102.682841958     -1102.356525077       122.661253437
        79           39.500000         0.296160721       324.722386508     -1102.682175598     -1102.356498364       119.918322861
        80           40.000000         0.285683813       313.235088653     -1102.677974318     -1102.356356637       843.497011084
        81           40.500000         0.307988658       337.691007621     -1102.673529462     -1102.356219005       123.355292518
        82           41.000000         0.283636192       310.989995645     -1102.670246716     -1102.356145174       124.267264966
        83           41.500000         0.292098231       320.268111452     -1102.671499341     -1102.356216322       124.140329499
        84           42.000000         0.319349960       350.147990617     -1102.673448769     -1102.356302368       120.591261107
        85           42.500000         0.324155512       355.416988732     -1102.673504057     -1102.356347537       121.825319402
        86           43.000000         0.300808653       329.818564681     -1102.671330785     -1102.356328113       122.054259423
        87           43.500000         0.297078691       325.728885646     -1102.670057303     -1102.356340372       123.628325354
        88           44.000000         0.300955400       329.979463577     -1102.669580757     -1102.356351231       120.744251579
        89           44.500000         0.292778428       321.013906599     -1102.667336026     -1102.356316568       124.920332249
        90           45.000000         0.274898758       301.409925937     -1102.662884544     -1102.356238183       858.974064276
        91           45.500000         0.273692113       300.086912077     -1102.659033483     -1102.356178724       122.227263242
        92           46.000000         0.263519393       288.933136857     -1102.657525460     -1102.356128008       124.132314298
        93           46.500000         0.271944812       298.171101600     -1102.657041021     -1102.356118620       121.390262235
        94           47.000000         0.261193256       286.382668676     -1102.659305313     -1102.356168408       122.505324770
        95           47.500000         0.268739647       294.656831480     -1102.662257239     -1102.356248589       124.596309457
        96           48.000000         0.277668876       304.447192794     -1102.659258383     -1102.356183994       121.294242222
        97           48.500000         0.283957697       311.342506709     -1102.654190135     -1102.356020721       123.108328748
        98           49.000000         0.275837644       302.439357540     -1102.649218764     -1102.355862121       122.728255603
        99           49.500000         0.271452640       297.631464532     -1102.647594551     -1102.355828560       121.831327707
