LAMMPS (15 Sep 2022)
OMP_NUM_THREADS environment is not set. Defaulting to 1 thread. (src/comm.cpp:98)
  using 1 OpenMP thread(s) per MPI task
Reading restart file ...
  restart file = 15 Sep 2022, LAMMPS = 15 Sep 2022
  restoring atom style atomic from restart
  orthogonal box = (0 0 0) to (7.368063 7.368063 7.368063)
  1 by 2 by 2 MPI processor grid
  restoring pair style lj/cut from restart
  480 atoms
  read_restart CPU = 0.023 seconds
Setting up equilibration run
Resetting global fix info from restart file:
  fix style: nvt, fix ID: 1
Generated 0 of 1 mixed pair_coeff terms from geometric mixing rule
All restart file global fix info was re-assigned
Neighbor list info ...
  update: every = 1 steps, delay = 20 steps, check = yes
  max neighbors/atom: 2000, page size: 100000
  master list distance cutoff = 3
  ghost atom cutoff = 3
  binsize = 1.5, bins = 5 5 5
  1 neighbor lists, perpetual/occasional/extra = 1 0 0
  (1) pair lj/cut, perpetual
      attributes: half, newton on
      pair build: half/bin/atomonly/newton
      stencil: half/bin/3d
      bin: standard
Setting up Verlet run ...
  Unit style    : lj
  Current step  : 0
  Time step     : 0.002
Per MPI rank memory allocation (min/avg/max) = 3.147 | 3.147 | 3.147 Mbytes
   Step          Temp          E_pair         E_mol          TotEng         Press     
         0   1.5455863     -5.2724744      0             -2.9589249      15.073274    
      1000   1.5233029     -5.3210344      0             -3.0408403      15.026716    
      2000   1.5059367     -5.3053005      0             -3.0511015      14.771       
      2500   1.5409763     -5.2419338      0             -2.9352849      15.11035     
Loop time of 0.349177 on 4 procs for 2500 steps with 480 atoms

Performance: 1237196.128 tau/day, 7159.700 timesteps/s, 3.437 Matom-step/s
98.6% CPU use with 4 MPI tasks x 1 OpenMP threads

MPI task timing breakdown:
Section |  min time  |  avg time  |  max time  |%varavg| %total
---------------------------------------------------------------
Pair    | 0.17386    | 0.18766    | 0.19802    |   2.1 | 53.74
Neigh   | 0.020395   | 0.021417   | 0.021891   |   0.4 |  6.13
Comm    | 0.098281   | 0.10598    | 0.11319    |   2.2 | 30.35
Output  | 0.014136   | 0.017465   | 0.02355    |   2.7 |  5.00
Modify  | 0.0073871  | 0.011706   | 0.016062   |   3.9 |  3.35
Other   |            | 0.004955   |            |       |  1.42

Nlocal:            120 ave         124 max         113 min
Histogram: 1 0 0 0 0 0 1 0 0 2
Nghost:           1387 ave        1416 max        1357 min
Histogram: 1 0 0 1 0 0 1 0 0 1
Neighs:        6925.75 ave        7095 max        6654 min
Histogram: 1 0 0 0 0 0 0 2 0 1

Total # of neighbors = 27703
Ave neighs/atom = 57.714583
Neighbor list builds = 88
Dangerous builds = 0
Total wall time: 0:00:00
LAMMPS (15 Sep 2022)
OMP_NUM_THREADS environment is not set. Defaulting to 1 thread. (src/comm.cpp:98)
  using 1 OpenMP thread(s) per MPI task
Reading restart file ...
  restart file = 15 Sep 2022, LAMMPS = 15 Sep 2022
  restoring atom style atomic from restart
  orthogonal box = (0 0 0) to (7.368063 7.368063 7.368063)
  1 by 2 by 2 MPI processor grid
  restoring pair style lj/cut from restart
  480 atoms
  read_restart CPU = 0.013 seconds
Setting up equilibration run
Resetting global fix info from restart file:
  fix style: nvt, fix ID: 1
Generated 0 of 1 mixed pair_coeff terms from geometric mixing rule
All restart file global fix info was re-assigned
Neighbor list info ...
  update: every = 1 steps, delay = 20 steps, check = yes
  max neighbors/atom: 2000, page size: 100000
  master list distance cutoff = 3
  ghost atom cutoff = 3
  binsize = 1.5, bins = 5 5 5
  1 neighbor lists, perpetual/occasional/extra = 1 0 0
  (1) pair lj/cut, perpetual
      attributes: half, newton on
      pair build: half/bin/atomonly/newton
      stencil: half/bin/3d
      bin: standard
Setting up Verlet run ...
  Unit style    : lj
  Current step  : 0
  Time step     : 0.002
Per MPI rank memory allocation (min/avg/max) = 3.147 | 3.148 | 3.148 Mbytes
   Step          Temp          E_pair         E_mol          TotEng         Press     
         0   1.0205509     -6.004798       0             -4.4771609      10.145833    
      2000   1.0256116     -5.9292717      0             -4.3940593      10.4944      
      4000   0.99093862    -6.0262735      0             -4.5429623      9.7398996    
      6000   1.0221552     -5.9509255      0             -4.4208869      10.225098    
      8000   1.0345702     -6.0667867      0             -4.5181645      9.6585883    
     10000   0.98149121    -6.0651403      0             -4.5959707      9.4973223    
     12000   1.0316096     -5.9981127      0             -4.4539221      10.137851    
     12500   1.0259106     -5.9686164      0             -4.4329564      10.246734    
Loop time of 1.5843 on 4 procs for 12500 steps with 480 atoms

Performance: 1363379.669 tau/day, 7889.929 timesteps/s, 3.787 Matom-step/s
99.3% CPU use with 4 MPI tasks x 1 OpenMP threads

MPI task timing breakdown:
Section |  min time  |  avg time  |  max time  |%varavg| %total
---------------------------------------------------------------
Pair    | 0.88379    | 0.91924    | 0.95208    |   3.1 | 58.02
Neigh   | 0.082424   | 0.084313   | 0.086418   |   0.5 |  5.32
Comm    | 0.44043    | 0.48804    | 0.54058    |   6.3 | 30.80
Output  | 0.017777   | 0.021381   | 0.028009   |   2.7 |  1.35
Modify  | 0.037677   | 0.051762   | 0.066858   |   6.2 |  3.27
Other   |            | 0.01956    |            |       |  1.23

Nlocal:            120 ave         123 max         113 min
Histogram: 1 0 0 0 0 0 0 0 1 2
Nghost:         1371.5 ave        1395 max        1350 min
Histogram: 1 0 1 0 0 0 1 0 0 1
Neighs:        6919.25 ave        7247 max        6427 min
Histogram: 1 0 0 0 0 0 1 1 0 1

Total # of neighbors = 27677
Ave neighs/atom = 57.660417
Neighbor list builds = 349
Dangerous builds = 0
Total wall time: 0:00:01
LAMMPS (15 Sep 2022)
OMP_NUM_THREADS environment is not set. Defaulting to 1 thread. (src/comm.cpp:98)
  using 1 OpenMP thread(s) per MPI task
Reading restart file ...
  restart file = 15 Sep 2022, LAMMPS = 15 Sep 2022
  restoring atom style atomic from restart
  orthogonal box = (0 0 0) to (7.368063 7.368063 7.368063)
  1 by 2 by 2 MPI processor grid
  restoring pair style lj/cut from restart
  480 atoms
  read_restart CPU = 0.034 seconds
Setting up equilibration run
Resetting global fix info from restart file:
  fix style: nvt, fix ID: 1
Generated 0 of 1 mixed pair_coeff terms from geometric mixing rule
All restart file global fix info was re-assigned
Neighbor list info ...
  update: every = 1 steps, delay = 25 steps, check = yes
  max neighbors/atom: 2000, page size: 100000
  master list distance cutoff = 3
  ghost atom cutoff = 3
  binsize = 1.5, bins = 5 5 5
  1 neighbor lists, perpetual/occasional/extra = 1 0 0
  (1) pair lj/cut, perpetual
      attributes: half, newton on
      pair build: half/bin/atomonly/newton
      stencil: half/bin/3d
      bin: standard
Setting up Verlet run ...
  Unit style    : lj
  Current step  : 0
  Time step     : 0.002
Per MPI rank memory allocation (min/avg/max) = 3.146 | 3.147 | 3.147 Mbytes
   Step          Temp          E_pair         E_mol          TotEng         Press     
         0   0.89745427    -6.2434841      0             -4.9001073      8.3090823    
      5000   0.95383815    -6.1878653      0             -4.7600889      8.7599373    
     10000   0.89758887    -6.2621552      0             -4.9185768      8.2456499    
     15000   0.90630984    -6.1481265      0             -4.7914939      8.9869587    
     20000   0.894579      -6.1859706      0             -4.8468976      8.7211365    
     25000   0.92550055    -6.1488967      0             -4.763538       9.0300371    
     30000   0.87096174    -6.1876853      0             -4.8839645      8.7455918    
     35000   0.92608707    -6.1341765      0             -4.74794        9.0744562    
     37500   0.9154793     -6.2632287      0             -4.8928706      8.2603157    
Loop time of 4.76909 on 4 procs for 37500 steps with 480 atoms

Performance: 1358748.736 tau/day, 7863.129 timesteps/s, 3.774 Matom-step/s
99.5% CPU use with 4 MPI tasks x 1 OpenMP threads

MPI task timing breakdown:
Section |  min time  |  avg time  |  max time  |%varavg| %total
---------------------------------------------------------------
Pair    | 2.6938     | 2.725      | 2.7877     |   2.2 | 57.14
Neigh   | 0.23426    | 0.23741    | 0.24312    |   0.7 |  4.98
Comm    | 1.5403     | 1.5683     | 1.6328     |   3.0 | 32.88
Output  | 0.020065   | 0.024163   | 0.031488   |   2.8 |  0.51
Modify  | 0.10695    | 0.1683     | 0.22897    |  13.9 |  3.53
Other   |            | 0.04589    |            |       |  0.96

Nlocal:            120 ave         126 max         115 min
Histogram: 1 1 0 0 0 0 1 0 0 1
Nghost:        1358.25 ave        1375 max        1347 min
Histogram: 1 0 1 1 0 0 0 0 0 1
Neighs:         6923.5 ave        7261 max        6672 min
Histogram: 1 0 1 0 1 0 0 0 0 1

Total # of neighbors = 27694
Ave neighs/atom = 57.695833
Neighbor list builds = 985
Dangerous builds = 0
Total wall time: 0:00:04
LAMMPS (15 Sep 2022)
OMP_NUM_THREADS environment is not set. Defaulting to 1 thread. (src/comm.cpp:98)
  using 1 OpenMP thread(s) per MPI task
Reading restart file ...
  restart file = 15 Sep 2022, LAMMPS = 15 Sep 2022
  restoring atom style atomic from restart
  orthogonal box = (0 0 0) to (7.368063 7.368063 7.368063)
  1 by 2 by 2 MPI processor grid
  restoring pair style lj/cut from restart
  480 atoms
  read_restart CPU = 0.021 seconds
Setting up equilibration run
Resetting global fix info from restart file:
  fix style: nvt, fix ID: 1
Generated 0 of 1 mixed pair_coeff terms from geometric mixing rule
All restart file global fix info was re-assigned
Neighbor list info ...
  update: every = 1 steps, delay = 25 steps, check = yes
  max neighbors/atom: 2000, page size: 100000
  master list distance cutoff = 3
  ghost atom cutoff = 3
  binsize = 1.5, bins = 5 5 5
  1 neighbor lists, perpetual/occasional/extra = 1 0 0
  (1) pair lj/cut, perpetual
      attributes: half, newton on
      pair build: half/bin/atomonly/newton
      stencil: half/bin/3d
      bin: standard
Setting up Verlet run ...
  Unit style    : lj
  Current step  : 0
  Time step     : 0.002
Per MPI rank memory allocation (min/avg/max) = 3.148 | 3.148 | 3.148 Mbytes
   Step          Temp          E_pair         E_mol          TotEng         Press     
         0   0.78442075    -6.3747841      0             -5.2006042      7.5266008    
      5000   0.79424999    -6.4005385      0             -5.2116456      7.252618     
     10000   0.77827985    -6.390359       0             -5.2253713      7.3730493    
     15000   0.82131299    -6.3502696      0             -5.1208667      7.5666707    
     20000   0.81956558    -6.3746269      0             -5.1478397      7.5035162    
     25000   0.79733897    -6.3821966      0             -5.1886799      7.2728896    
     30000   0.7702247     -6.2602429      0             -5.1073128      8.1826066    
     35000   0.78870334    -6.353301       0             -5.1727107      7.6938163    
     37500   0.80596517    -6.3125552      0             -5.1061261      7.7760025    
Loop time of 4.5825 on 4 procs for 37500 steps with 480 atoms

Performance: 1414074.441 tau/day, 8183.301 timesteps/s, 3.928 Matom-step/s
99.5% CPU use with 4 MPI tasks x 1 OpenMP threads

MPI task timing breakdown:
Section |  min time  |  avg time  |  max time  |%varavg| %total
---------------------------------------------------------------
Pair    | 2.6853     | 2.7514     | 2.8453     |   3.6 | 60.04
Neigh   | 0.21966    | 0.22296    | 0.22554    |   0.4 |  4.87
Comm    | 1.2344     | 1.3773     | 1.4933     |   8.9 | 30.05
Output  | 0.01988    | 0.023452   | 0.030203   |   2.6 |  0.51
Modify  | 0.1103     | 0.16023    | 0.21026    |  12.0 |  3.50
Other   |            | 0.04717    |            |       |  1.03

Nlocal:            120 ave         123 max         117 min
Histogram: 1 1 0 0 0 0 0 0 1 1
Nghost:         1388.5 ave        1394 max        1385 min
Histogram: 1 0 1 1 0 0 0 0 0 1
Neighs:        6932.25 ave        7110 max        6765 min
Histogram: 1 0 1 0 0 0 1 0 0 1

Total # of neighbors = 27729
Ave neighs/atom = 57.76875
Neighbor list builds = 923
Dangerous builds = 0
Total wall time: 0:00:04
LAMMPS (15 Sep 2022)
OMP_NUM_THREADS environment is not set. Defaulting to 1 thread. (src/comm.cpp:98)
  using 1 OpenMP thread(s) per MPI task
Reading restart file ...
  restart file = 15 Sep 2022, LAMMPS = 15 Sep 2022
  restoring atom style atomic from restart
  orthogonal box = (0 0 0) to (7.368063 7.368063 7.368063)
  1 by 2 by 2 MPI processor grid
  restoring pair style lj/cut from restart
  480 atoms
  read_restart CPU = 0.038 seconds
Setting up equilibration run
Resetting global fix info from restart file:
  fix style: nvt, fix ID: 1
Generated 0 of 1 mixed pair_coeff terms from geometric mixing rule
All restart file global fix info was re-assigned
Neighbor list info ...
  update: every = 1 steps, delay = 25 steps, check = yes
  max neighbors/atom: 2000, page size: 100000
  master list distance cutoff = 3
  ghost atom cutoff = 3
  binsize = 1.5, bins = 5 5 5
  1 neighbor lists, perpetual/occasional/extra = 1 0 0
  (1) pair lj/cut, perpetual
      attributes: half, newton on
      pair build: half/bin/atomonly/newton
      stencil: half/bin/3d
      bin: standard
Setting up Verlet run ...
  Unit style    : lj
  Current step  : 0
  Time step     : 0.003
Per MPI rank memory allocation (min/avg/max) = 3.149 | 3.149 | 3.15 Mbytes
   Step          Temp          E_pair         E_mol          TotEng         Press     
         0   0.75113336    -6.5615076      0             -5.4371548      6.3628175    
      6000   0.68664741    -6.527639       0             -5.4998136      6.3522868    
     12000   0.68366333    -6.5042178      0             -5.4808592      6.504997     
     18000   0.70000417    -6.4516673      0             -5.4038486      6.8476912    
     24000   0.70908601    -6.6241006      0             -5.5626875      5.8477343    
     30000   0.64716735    -6.4732702      0             -5.5045416      6.6267262    
     36000   0.70693618    -6.5387519      0             -5.4805569      6.2733254    
     42000   0.67186458    -6.4873923      0             -5.481695       6.5260737    
     45000   0.75068985    -6.4722189      0             -5.34853        6.7331728    
Loop time of 5.65147 on 4 procs for 45000 steps with 480 atoms

Performance: 2063888.831 tau/day, 7962.534 timesteps/s, 3.822 Matom-step/s
99.5% CPU use with 4 MPI tasks x 1 OpenMP threads

MPI task timing breakdown:
Section |  min time  |  avg time  |  max time  |%varavg| %total
---------------------------------------------------------------
Pair    | 3.2656     | 3.3053     | 3.3371     |   1.7 | 58.49
Neigh   | 0.35755    | 0.36725    | 0.375      |   1.0 |  6.50
Comm    | 1.6701     | 1.7142     | 1.7525     |   2.4 | 30.33
Output  | 0.020253   | 0.023997   | 0.030957   |   2.7 |  0.42
Modify  | 0.13214    | 0.19802    | 0.26604    |  14.2 |  3.50
Other   |            | 0.04269    |            |       |  0.76

Nlocal:            120 ave         125 max         117 min
Histogram: 1 1 0 1 0 0 0 0 0 1
Nghost:        1394.75 ave        1416 max        1381 min
Histogram: 1 1 0 0 1 0 0 0 0 1
Neighs:        6904.75 ave        7212 max        6721 min
Histogram: 2 0 0 0 1 0 0 0 0 1

Total # of neighbors = 27619
Ave neighs/atom = 57.539583
Neighbor list builds = 1506
Dangerous builds = 121
Total wall time: 0:00:05
LAMMPS (15 Sep 2022)
OMP_NUM_THREADS environment is not set. Defaulting to 1 thread. (src/comm.cpp:98)
  using 1 OpenMP thread(s) per MPI task
Reading restart file ...
  restart file = 15 Sep 2022, LAMMPS = 15 Sep 2022
  restoring atom style atomic from restart
  orthogonal box = (0 0 0) to (7.368063 7.368063 7.368063)
  1 by 2 by 2 MPI processor grid
  restoring pair style lj/cut from restart
  480 atoms
  read_restart CPU = 0.034 seconds
Setting up equilibration run
Resetting global fix info from restart file:
  fix style: nvt, fix ID: 1
Generated 0 of 1 mixed pair_coeff terms from geometric mixing rule
All restart file global fix info was re-assigned
Neighbor list info ...
  update: every = 1 steps, delay = 25 steps, check = yes
  max neighbors/atom: 2000, page size: 100000
  master list distance cutoff = 3
  ghost atom cutoff = 3
  binsize = 1.5, bins = 5 5 5
  1 neighbor lists, perpetual/occasional/extra = 1 0 0
  (1) pair lj/cut, perpetual
      attributes: half, newton on
      pair build: half/bin/atomonly/newton
      stencil: half/bin/3d
      bin: standard
Setting up Verlet run ...
  Unit style    : lj
  Current step  : 0
  Time step     : 0.003
Per MPI rank memory allocation (min/avg/max) = 3.147 | 3.147 | 3.148 Mbytes
   Step          Temp          E_pair         E_mol          TotEng         Press     
         0   0.6675991     -6.5984035      0             -5.5990911      5.8530659    
     70000   0.64528806    -6.6361209      0             -5.6702054      5.4837272    
     87500   0.66490459    -6.5253496      0             -5.5300705      6.4715487    
Loop time of 10.9379 on 4 procs for 87500 steps with 480 atoms

Performance: 2073521.150 tau/day, 7999.696 timesteps/s, 3.840 Matom-step/s
99.4% CPU use with 4 MPI tasks x 1 OpenMP threads

MPI task timing breakdown:
Section |  min time  |  avg time  |  max time  |%varavg| %total
---------------------------------------------------------------
Pair    | 6.3382     | 6.4228     | 6.6368     |   4.9 | 58.72
Neigh   | 0.6749     | 0.68334    | 0.69155    |   0.9 |  6.25
Comm    | 3.1651     | 3.2732     | 3.4249     |   5.2 | 29.93
Output  | 0.088692   | 0.092704   | 0.099988   |   1.4 |  0.85
Modify  | 0.26355    | 0.3805     | 0.50251    |  18.6 |  3.48
Other   |            | 0.08543    |            |       |  0.78

Nlocal:            120 ave         124 max         117 min
Histogram: 1 1 0 0 0 1 0 0 0 1
Nghost:        1377.75 ave        1391 max        1363 min
Histogram: 1 0 0 0 0 1 1 0 0 1
Neighs:           6939 ave        7256 max        6728 min
Histogram: 1 1 0 0 1 0 0 0 0 1

Total # of neighbors = 27756
Ave neighs/atom = 57.825
Neighbor list builds = 2831
Dangerous builds = 133
Total wall time: 0:00:10
LAMMPS (15 Sep 2022)
OMP_NUM_THREADS environment is not set. Defaulting to 1 thread. (src/comm.cpp:98)
  using 1 OpenMP thread(s) per MPI task
Reading restart file ...
  restart file = 15 Sep 2022, LAMMPS = 15 Sep 2022
  restoring atom style atomic from restart
  orthogonal box = (0 0 0) to (7.368063 7.368063 7.368063)
  1 by 2 by 2 MPI processor grid
  restoring pair style lj/cut from restart
  480 atoms
  read_restart CPU = 0.022 seconds
Setting up equilibration run
Resetting global fix info from restart file:
  fix style: nvt, fix ID: 1
Generated 0 of 1 mixed pair_coeff terms from geometric mixing rule
All restart file global fix info was re-assigned
Neighbor list info ...
  update: every = 1 steps, delay = 25 steps, check = yes
  max neighbors/atom: 2000, page size: 100000
  master list distance cutoff = 3
  ghost atom cutoff = 3
  binsize = 1.5, bins = 5 5 5
  1 neighbor lists, perpetual/occasional/extra = 1 0 0
  (1) pair lj/cut, perpetual
      attributes: half, newton on
      pair build: half/bin/atomonly/newton
      stencil: half/bin/3d
      bin: standard
Setting up Verlet run ...
  Unit style    : lj
  Current step  : 0
  Time step     : 0.003
Per MPI rank memory allocation (min/avg/max) = 3.147 | 3.147 | 3.147 Mbytes
   Step          Temp          E_pair         E_mol          TotEng         Press     
         0   0.59059704    -6.7118758      0             -5.8278258      5.0194525    
     50000   0.60151777    -6.6874336      0             -5.7870367      5.2416472    
    100000   0.59149303    -6.7788669      0             -5.8934757      4.729397     
    150000   0.5879768     -6.6279721      0             -5.7478444      5.8210543    
    200000   0.59117345    -6.7008477      0             -5.8159349      5.2709375    
    250000   0.61721327    -6.7338135      0             -5.8099224      4.9266366    
Loop time of 31.0551 on 4 procs for 250000 steps with 480 atoms

Performance: 2086614.794 tau/day, 8050.211 timesteps/s, 3.864 Matom-step/s
99.5% CPU use with 4 MPI tasks x 1 OpenMP threads

MPI task timing breakdown:
Section |  min time  |  avg time  |  max time  |%varavg| %total
---------------------------------------------------------------
Pair    | 17.969     | 18.277     | 18.662     |   7.1 | 58.85
Neigh   | 1.8383     | 1.849      | 1.8593     |   0.6 |  5.95
Comm    | 9.0581     | 9.5452     | 10.099     |  12.2 | 30.74
Output  | 0.14346    | 0.14808    | 0.15646    |   1.3 |  0.48
Modify  | 0.73058    | 0.98408    | 1.2526     |  25.0 |  3.17
Other   |            | 0.2514     |            |       |  0.81

Nlocal:            120 ave         125 max         112 min
Histogram: 1 0 0 0 0 1 0 0 0 2
Nghost:        1390.25 ave        1416 max        1364 min
Histogram: 2 0 0 0 0 0 0 0 0 2
Neighs:           6944 ave        7211 max        6444 min
Histogram: 1 0 0 0 0 0 1 0 0 2

Total # of neighbors = 27776
Ave neighs/atom = 57.866667
Neighbor list builds = 7699
Dangerous builds = 209
Total wall time: 0:00:31
LAMMPS (15 Sep 2022)
OMP_NUM_THREADS environment is not set. Defaulting to 1 thread. (src/comm.cpp:98)
  using 1 OpenMP thread(s) per MPI task
Reading restart file ...
  restart file = 15 Sep 2022, LAMMPS = 15 Sep 2022
  restoring atom style atomic from restart
  orthogonal box = (0 0 0) to (7.368063 7.368063 7.368063)
  1 by 2 by 2 MPI processor grid
  restoring pair style lj/cut from restart
  480 atoms
  read_restart CPU = 0.003 seconds
Setting up equilibration run
Resetting global fix info from restart file:
  fix style: nvt, fix ID: 1
Generated 0 of 1 mixed pair_coeff terms from geometric mixing rule
All restart file global fix info was re-assigned
Neighbor list info ...
  update: every = 1 steps, delay = 25 steps, check = yes
  max neighbors/atom: 2000, page size: 100000
  master list distance cutoff = 3
  ghost atom cutoff = 3
  binsize = 1.5, bins = 5 5 5
  1 neighbor lists, perpetual/occasional/extra = 1 0 0
  (1) pair lj/cut, perpetual
      attributes: half, newton on
      pair build: half/bin/atomonly/newton
      stencil: half/bin/3d
      bin: standard
Setting up Verlet run ...
  Unit style    : lj
  Current step  : 0
  Time step     : 0.003
Per MPI rank memory allocation (min/avg/max) = 3.149 | 3.149 | 3.15 Mbytes
   Step          Temp          E_pair         E_mol          TotEng         Press     
         0   0.5502435     -6.7782858      0             -5.9546401      4.5396857    
     30000   0.54457478    -6.7635988      0             -5.9484384      4.6646202    
     60000   0.54911849    -6.7836068      0             -5.9616451      4.6851507    
     90000   0.56649254    -6.8514157      0             -6.0034472      4.2641978    
    120000   0.55892685    -6.7771488      0             -5.9405052      4.6316555    
    150000   0.54844269    -6.7587196      0             -5.9377694      4.6259072    
    180000   0.5767246     -6.8073323      0             -5.9440476      4.4164568    
    210000   0.56485264    -6.7646667      0             -5.9191529      4.6952999    
    240000   0.53096708    -6.783757       0             -5.9889657      4.5499106    
    270000   0.55801549    -6.7730498      0             -5.9377704      4.5701618    
    300000   0.54750843    -6.7766944      0             -5.9571428      4.6974173    
    330000   0.51242653    -6.8562418      0             -6.0892034      3.9481874    
    360000   0.52623472    -6.7328708      0             -5.9451632      4.7317048    
    390000   0.5744574     -6.7449456      0             -5.8850547      4.8688432    
    420000   0.59487579    -6.8094519      0             -5.9189972      4.5205758    
    450000   0.55012509    -6.7855384      0             -5.9620699      4.4919279    
    480000   0.56320731    -6.780296       0             -5.9372451      4.5970803    
    510000   0.55708051    -6.8046065      0             -5.9707266      4.4838728    
    540000   0.54524989    -6.8380572      0             -6.0218862      4.1594747    
    570000   0.54606197    -6.763237       0             -5.9458505      4.7500936    
    600000   0.55539947    -6.8206354      0             -5.9892719      4.429453     
    630000   0.57153374    -6.8072384      0             -5.9517238      4.5443789    
    660000   0.53388413    -6.8241718      0             -6.025014       4.321458     
    690000   0.53656264    -6.8651996      0             -6.0620324      4.0473894    
    720000   0.53768852    -6.8203245      0             -6.015472       4.3879584    
    750000   0.52436267    -6.8290195      0             -6.0441141      4.1751732    
Loop time of 132.328 on 4 procs for 750000 steps with 480 atoms

Performance: 1469074.909 tau/day, 5667.727 timesteps/s, 2.721 Matom-step/s
92.8% CPU use with 4 MPI tasks x 1 OpenMP threads

MPI task timing breakdown:
Section |  min time  |  avg time  |  max time  |%varavg| %total
---------------------------------------------------------------
Pair    | 53.956     | 55.717     | 58.005     |  20.7 | 42.11
Neigh   | 5.2194     | 5.2603     | 5.3676     |   2.7 |  3.98
Comm    | 55.977     | 58.652     | 61.05      |  26.5 | 44.32
Output  | 0.042454   | 0.047542   | 0.057236   |   2.6 |  0.04
Modify  | 7.6198     | 9.9506     | 12.189     |  70.8 |  7.52
Other   |            | 2.701      |            |       |  2.04

Nlocal:            120 ave         125 max         112 min
Histogram: 1 0 0 0 0 0 1 1 0 1
Nghost:         1373.5 ave        1384 max        1359 min
Histogram: 1 0 0 0 1 0 0 0 1 1
Neighs:        6956.25 ave        7163 max        6644 min
Histogram: 1 0 0 0 0 0 1 1 0 1

Total # of neighbors = 27825
Ave neighs/atom = 57.96875
Neighbor list builds = 21852
Dangerous builds = 224
Total wall time: 0:02:12
LAMMPS (15 Sep 2022)
OMP_NUM_THREADS environment is not set. Defaulting to 1 thread. (src/comm.cpp:98)
  using 1 OpenMP thread(s) per MPI task
Reading restart file ...
ERROR on proc 0: Cannot open restart file equil/kalj_T0.5_n480_v400_10000000_1.final.lmprestart.10000000: No such file or directory (src/read_restart.cpp:113)
Last command: read_restart ${prevbasename}.final.lmprestart.${steps}
--------------------------------------------------------------------------
MPI_ABORT was invoked on rank 0 in communicator MPI_COMM_WORLD
with errorcode 1.

NOTE: invoking MPI_ABORT causes Open MPI to kill all MPI processes.
You may or may not see output from other processes, depending on
exactly when Open MPI kills them.
--------------------------------------------------------------------------
[warn] Epoll MOD(1) on fd 24 failed.  Old events were 6; read change was 0 (none); write change was 2 (del): Bad file descriptor
[warn] Epoll MOD(4) on fd 24 failed.  Old events were 6; read change was 2 (del); write change was 0 (none): Bad file descriptor
LAMMPS (15 Sep 2022)
OMP_NUM_THREADS environment is not set. Defaulting to 1 thread. (src/comm.cpp:98)
  using 1 OpenMP thread(s) per MPI task
Reading restart file ...
ERROR on proc 0: Cannot open restart file equil/kalj_T0.475_n480_v400_30000000_1.final.lmprestart.30000000: No such file or directory (src/read_restart.cpp:113)
Last command: read_restart ${prevbasename}.final.lmprestart.${steps}
--------------------------------------------------------------------------
MPI_ABORT was invoked on rank 0 in communicator MPI_COMM_WORLD
with errorcode 1.

NOTE: invoking MPI_ABORT causes Open MPI to kill all MPI processes.
You may or may not see output from other processes, depending on
exactly when Open MPI kills them.
--------------------------------------------------------------------------
[warn] Epoll MOD(1) on fd 24 failed.  Old events were 6; read change was 0 (none); write change was 2 (del): Bad file descriptor
[warn] Epoll MOD(4) on fd 24 failed.  Old events were 6; read change was 2 (del); write change was 0 (none): Bad file descriptor
