LAMMPS (15 Sep 2022)
OMP_NUM_THREADS environment is not set. Defaulting to 1 thread. (src/comm.cpp:98)
  using 1 OpenMP thread(s) per MPI task
Lattice spacing in x,y,z = 1.4938016 1.4938016 1.4938016
Created orthogonal box = (0 0 0) to (6.6943295 6.6943295 6.6943295)
  1 by 2 by 2 MPI processor grid
Created 365 atoms
  using lattice units in orthogonal box = (0 0 0) to (6.6943295 6.6943295 6.6943295)
  create_atoms CPU = 0.000 seconds
Setting atom values ...
  77 settings made for type
5 atoms in group extra
Deleted 5 atoms, new total = 360
288 atoms in group typea
72 atoms in group typeb
Minimizing initial structure
Generated 0 of 1 mixed pair_coeff terms from geometric mixing rule
Neighbor list info ...
  update: every = 1 steps, delay = 0 steps, check = yes
  max neighbors/atom: 2000, page size: 100000
  master list distance cutoff = 3
  ghost atom cutoff = 3
  binsize = 1.5, bins = 5 5 5
  1 neighbor lists, perpetual/occasional/extra = 1 0 0
  (1) pair lj/cut, perpetual
      attributes: half, newton on
      pair build: half/bin/atomonly/newton
      stencil: half/bin/3d
      bin: standard
Setting up Verlet run ...
  Unit style    : lj
  Current step  : 0
  Time step     : 0.001
Per MPI rank memory allocation (min/avg/max) = 4.13 | 4.13 | 4.131 Mbytes
   Step          Temp          E_pair         E_mol          TotEng         Press     
         0   0              31.924966      0              31.924966      202.31477    
      1000   15.884536      7.9779771      0              31.738595      107.46448    
      2000   17.225344      5.9694166      0              31.73566       98.119254    
      3000   17.041806      6.2477053      0              31.739407      98.328932    
      4000   16.342986      7.2942712      0              31.740655      103.54511    
      5000   16.488682      7.0735922      0              31.737912      102.50661    
      6000   17.193786      6.0196932      0              31.738731      97.401312    
      7000   17.570058      5.4596157      0              31.741494      94.74889     
      8000   17.177303      6.0456136      0              31.739997      97.861044    
      9000   16.986798      6.3310021      0              31.740421      98.990805    
     10000   17.084804      6.1828112      0              31.738831      98.23776     
Loop time of 0.982892 on 4 procs for 10000 steps with 360 atoms

Performance: 879038.552 tau/day, 10174.057 timesteps/s, 3.663 Matom-step/s
99.5% CPU use with 4 MPI tasks x 1 OpenMP threads

MPI task timing breakdown:
Section |  min time  |  avg time  |  max time  |%varavg| %total
---------------------------------------------------------------
Pair    | 0.55041    | 0.56361    | 0.58331    |   1.7 | 57.34
Neigh   | 0.10532    | 0.10793    | 0.11149    |   0.8 | 10.98
Comm    | 0.25887    | 0.2812     | 0.29579    |   2.7 | 28.61
Output  | 0.0014994  | 0.0015132  | 0.0015486  |   0.1 |  0.15
Modify  | 0.0091375  | 0.0097571  | 0.010776   |   0.6 |  0.99
Other   |            | 0.01888    |            |       |  1.92

Nlocal:             90 ave          94 max          83 min
Histogram: 1 0 0 0 0 0 1 0 0 2
Nghost:         1246.5 ave        1262 max        1233 min
Histogram: 1 1 0 0 0 0 0 1 0 1
Neighs:         5168.5 ave        5488 max        4910 min
Histogram: 1 0 0 1 1 0 0 0 0 1

Total # of neighbors = 20674
Ave neighs/atom = 57.427778
Neighbor list builds = 609
Dangerous builds = 0
Total wall time: 0:00:01
LAMMPS (15 Sep 2022)
OMP_NUM_THREADS environment is not set. Defaulting to 1 thread. (src/comm.cpp:98)
  using 1 OpenMP thread(s) per MPI task
Reading restart file ...
  restart file = 15 Sep 2022, LAMMPS = 15 Sep 2022
  restoring atom style atomic from restart
  orthogonal box = (0 0 0) to (6.6943295 6.6943295 6.6943295)
  1 by 2 by 2 MPI processor grid
  restoring pair style lj/cut from restart
  360 atoms
  read_restart CPU = 0.002 seconds
Setting up annealing run
Generated 0 of 1 mixed pair_coeff terms from geometric mixing rule
Neighbor list info ...
  update: every = 1 steps, delay = 20 steps, check = yes
  max neighbors/atom: 2000, page size: 100000
  master list distance cutoff = 3
  ghost atom cutoff = 3
  binsize = 1.5, bins = 5 5 5
  1 neighbor lists, perpetual/occasional/extra = 1 0 0
  (1) pair lj/cut, perpetual
      attributes: half, newton on
      pair build: half/bin/atomonly/newton
      stencil: half/bin/3d
      bin: standard
Setting up Verlet run ...
  Unit style    : lj
  Current step  : 0
  Time step     : 0.002
Per MPI rank memory allocation (min/avg/max) = 4.114 | 4.115 | 4.115 Mbytes
   Step          Temp          E_pair         E_mol          TotEng         Press     
         0   1.5            6.1828112      0              8.4265612      79.587945    
      1000   1.564295      -5.3238204      0             -2.9838958      14.598239    
      2000   1.5719047     -5.2427833      0             -2.8914758      15.337174    
      3000   1.4625696     -5.2326604      0             -3.0449001      15.220319    
      4000   1.4991993     -5.3716201      0             -3.1290678      14.362361    
      5000   1.4633336     -5.1953357      0             -3.0064326      15.589876    
      6000   1.4993662     -5.3256533      0             -3.0828514      14.627532    
      7000   1.5630407     -5.3694236      0             -3.0313752      14.744586    
      8000   1.4205026     -5.2072325      0             -3.0823974      15.04207     
      9000   1.5704021     -5.2204867      0             -2.8714268      15.515906    
     10000   1.5214001     -5.1923617      0             -2.9166007      15.468956    
Loop time of 0.852907 on 4 procs for 10000 steps with 360 atoms

Performance: 2026011.291 tau/day, 11724.602 timesteps/s, 4.221 Matom-step/s
99.4% CPU use with 4 MPI tasks x 1 OpenMP threads

MPI task timing breakdown:
Section |  min time  |  avg time  |  max time  |%varavg| %total
---------------------------------------------------------------
Pair    | 0.52105    | 0.52993    | 0.53389    |   0.7 | 62.13
Neigh   | 0.059069   | 0.059677   | 0.06014    |   0.2 |  7.00
Comm    | 0.22566    | 0.22972    | 0.23865    |   1.1 | 26.93
Output  | 0.00062315 | 0.00063753 | 0.00067933 |   0.0 |  0.07
Modify  | 0.023722   | 0.024031   | 0.02457    |   0.2 |  2.82
Other   |            | 0.008918   |            |       |  1.05

Nlocal:             90 ave          93 max          86 min
Histogram: 1 0 0 0 0 1 0 1 0 1
Nghost:           1253 ave        1260 max        1250 min
Histogram: 1 2 0 0 0 0 0 0 0 1
Neighs:        5185.75 ave        5330 max        4897 min
Histogram: 1 0 0 0 0 0 0 1 1 1

Total # of neighbors = 20743
Ave neighs/atom = 57.619444
Neighbor list builds = 348
Dangerous builds = 8
Total wall time: 0:00:00
LAMMPS (15 Sep 2022)
OMP_NUM_THREADS environment is not set. Defaulting to 1 thread. (src/comm.cpp:98)
  using 1 OpenMP thread(s) per MPI task
Reading restart file ...
  restart file = 15 Sep 2022, LAMMPS = 15 Sep 2022
  restoring atom style atomic from restart
  orthogonal box = (0 0 0) to (6.6943295 6.6943295 6.6943295)
  1 by 2 by 2 MPI processor grid
  restoring pair style lj/cut from restart
  360 atoms
  read_restart CPU = 0.002 seconds
Setting up annealing run
Resetting global fix info from restart file:
  fix style: nvt, fix ID: 1
Generated 0 of 1 mixed pair_coeff terms from geometric mixing rule
All restart file global fix info was re-assigned
Neighbor list info ...
  update: every = 1 steps, delay = 20 steps, check = yes
  max neighbors/atom: 2000, page size: 100000
  master list distance cutoff = 3
  ghost atom cutoff = 3
  binsize = 1.5, bins = 5 5 5
  1 neighbor lists, perpetual/occasional/extra = 1 0 0
  (1) pair lj/cut, perpetual
      attributes: half, newton on
      pair build: half/bin/atomonly/newton
      stencil: half/bin/3d
      bin: standard
Setting up Verlet run ...
  Unit style    : lj
  Current step  : 0
  Time step     : 0.002
Per MPI rank memory allocation (min/avg/max) = 4.117 | 4.117 | 4.117 Mbytes
   Step          Temp          E_pair         E_mol          TotEng         Press     
         0   1             -5.1923617      0             -3.6965284      14.845013    
      2000   1.0381145     -5.9907726      0             -4.4379264      10.103517    
      4000   1.0027038     -6.0089952      0             -4.5091174      9.9484172    
      6000   1.0109643     -5.9924636      0             -4.4802295      10.029605    
      8000   1.0422084     -5.9489031      0             -4.3899331      10.427676    
     10000   1.0201        -6.0388746      0             -4.512975       9.590989     
     12000   0.97859887    -6.0114681      0             -4.5476472      9.9042718    
     14000   0.94316003    -5.9214766      0             -4.5106664      10.290419    
     16000   1.0396629     -5.8584241      0             -4.3032617      10.898475    
     18000   1.0231306     -5.9959299      0             -4.4654971      10.003865    
     20000   1.0186199     -6.0729125      0             -4.5492269      9.5694454    
     22000   0.96135928    -6.1261219      0             -4.6880886      9.1687051    
     24000   0.96615701    -5.8837086      0             -4.4384987      10.550786    
     26000   1.0036566     -6.0759741      0             -4.5746712      9.5816451    
     28000   0.94758375    -6.046673       0             -4.6292456      9.5685822    
     30000   1.0039549     -5.9122675      0             -4.4105183      10.326226    
     32000   1.0355176     -6.0991369      0             -4.5501751      9.3649096    
     34000   0.97778699    -5.9532947      0             -4.4906884      10.252495    
     36000   0.98033602    -6.0311488      0             -4.5647295      9.8267331    
     38000   1.0843475     -5.8806463      0             -4.2586431      10.823015    
     40000   0.99482287    -6.1786599      0             -4.6905707      8.9004434    
     42000   1.0564384     -5.9745467      0             -4.394291       10.251032    
     44000   1.0547423     -6.0692337      0             -4.4915151      9.6106997    
     46000   0.96846286    -5.9980899      0             -4.5494308      9.6383073    
     48000   0.89652958    -6.0327088      0             -4.69165        9.5697395    
     50000   1.0108632     -6.013634       0             -4.5015511      9.960712     
Loop time of 4.25605 on 4 procs for 50000 steps with 360 atoms

Performance: 2030052.115 tau/day, 11747.987 timesteps/s, 4.229 Matom-step/s
99.6% CPU use with 4 MPI tasks x 1 OpenMP threads

MPI task timing breakdown:
Section |  min time  |  avg time  |  max time  |%varavg| %total
---------------------------------------------------------------
Pair    | 2.6006     | 2.6506     | 2.7007     |   3.0 | 62.28
Neigh   | 0.2304     | 0.23488    | 0.23959    |   0.9 |  5.52
Comm    | 1.1468     | 1.1992     | 1.2543     |   4.8 | 28.18
Output  | 0.0013659  | 0.0014013  | 0.0015004  |   0.2 |  0.03
Modify  | 0.11565    | 0.11879    | 0.12359    |   0.8 |  2.79
Other   |            | 0.05123    |            |       |  1.20

Nlocal:             90 ave          93 max          87 min
Histogram: 1 1 0 0 0 0 0 0 1 1
Nghost:           1241 ave        1251 max        1228 min
Histogram: 1 0 0 1 0 0 0 0 0 2
Neighs:        5185.75 ave        5473 max        4954 min
Histogram: 1 0 1 0 0 1 0 0 0 1

Total # of neighbors = 20743
Ave neighs/atom = 57.619444
Neighbor list builds = 1354
Dangerous builds = 0
Total wall time: 0:00:04
LAMMPS (15 Sep 2022)
OMP_NUM_THREADS environment is not set. Defaulting to 1 thread. (src/comm.cpp:98)
  using 1 OpenMP thread(s) per MPI task
Reading restart file ...
  restart file = 15 Sep 2022, LAMMPS = 15 Sep 2022
  restoring atom style atomic from restart
  orthogonal box = (0 0 0) to (6.6943295 6.6943295 6.6943295)
  1 by 2 by 2 MPI processor grid
  restoring pair style lj/cut from restart
  360 atoms
  read_restart CPU = 0.002 seconds
Setting up annealing run
Resetting global fix info from restart file:
  fix style: nvt, fix ID: 1
Generated 0 of 1 mixed pair_coeff terms from geometric mixing rule
All restart file global fix info was re-assigned
Neighbor list info ...
  update: every = 1 steps, delay = 25 steps, check = yes
  max neighbors/atom: 2000, page size: 100000
  master list distance cutoff = 3
  ghost atom cutoff = 3
  binsize = 1.5, bins = 5 5 5
  1 neighbor lists, perpetual/occasional/extra = 1 0 0
  (1) pair lj/cut, perpetual
      attributes: half, newton on
      pair build: half/bin/atomonly/newton
      stencil: half/bin/3d
      bin: standard
Setting up Verlet run ...
  Unit style    : lj
  Current step  : 0
  Time step     : 0.002
Per MPI rank memory allocation (min/avg/max) = 4.116 | 4.116 | 4.116 Mbytes
   Step          Temp          E_pair         E_mol          TotEng         Press     
         0   0.9           -6.013634       0             -4.667384       9.8280457    
      5000   0.9005116     -6.2479894      0             -4.9009742      8.3249335    
     10000   0.87226676    -6.2711683      0             -4.9664026      8.078082     
     15000   0.8235443     -6.1574685      0             -4.9255835      8.838807     
     20000   0.86054107    -6.0651929      0             -4.7779669      9.4640291    
     25000   0.9042106     -6.3473352      0             -4.9947868      7.7294612    
     30000   0.87445365    -6.1820119      0             -4.873975       8.6757513    
     35000   0.96948244    -6.1509709      0             -4.7007868      9.1836484    
     40000   0.89660082    -6.2304583      0             -4.8892929      8.257903     
     45000   0.96855275    -6.1823949      0             -4.7336014      8.9227614    
     50000   0.92114945    -6.227972       0             -4.8500859      8.4679768    
     55000   0.89600698    -6.2158862      0             -4.8756091      8.5553364    
     60000   0.88575581    -6.1544618      0             -4.8295187      8.9557385    
     65000   0.87208165    -6.1853972      0             -4.8809084      8.5079058    
     70000   0.9131122     -6.2620541      0             -4.8961905      8.2468404    
     75000   0.97527867    -6.1805172      0             -4.7216629      8.8897236    
     80000   0.92150739    -6.2456656      0             -4.8672441      8.4469004    
     85000   0.95501926    -6.2538155      0             -4.8252659      8.4954864    
     90000   0.85346848    -6.2525374      0             -4.9758908      8.0978077    
     95000   0.91394782    -6.1505092      0             -4.7833956      8.8812762    
    100000   0.85819388    -6.052582       0             -4.768867       9.2239218    
    105000   0.95848124    -6.3001269      0             -4.8663987      8.0699577    
    110000   0.94223932    -6.1396417      0             -4.7302087      8.9239169    
    115000   0.97108647    -6.2521621      0             -4.7995786      8.516912     
    120000   0.94367913    -6.1837884      0             -4.7722017      8.6776831    
    125000   0.96255622    -6.1898306      0             -4.7500069      8.7940615    
    130000   0.90496464    -6.3213062      0             -4.96763        7.9040602    
    135000   0.85667029    -6.1940998      0             -4.9126639      8.6202782    
    140000   0.90632395    -6.2207103      0             -4.8650007      8.4149087    
    145000   0.89971611    -6.2213821      0             -4.8755568      8.5039167    
    150000   0.86682428    -6.268331       0             -4.9717064      8.0526361    
Loop time of 12.3663 on 4 procs for 150000 steps with 360 atoms

Performance: 2096017.645 tau/day, 12129.732 timesteps/s, 4.367 Matom-step/s
99.6% CPU use with 4 MPI tasks x 1 OpenMP threads

MPI task timing breakdown:
Section |  min time  |  avg time  |  max time  |%varavg| %total
---------------------------------------------------------------
Pair    | 7.5968     | 7.8128     | 7.9729     |   4.9 | 63.18
Neigh   | 0.64808    | 0.65463    | 0.66391    |   0.7 |  5.29
Comm    | 3.2555     | 3.4099     | 3.6264     |   7.4 | 27.57
Output  | 0.0012676  | 0.0013179  | 0.0014636  |   0.2 |  0.01
Modify  | 0.34551    | 0.35083    | 0.35742    |   0.7 |  2.84
Other   |            | 0.1368     |            |       |  1.11

Nlocal:             90 ave          92 max          86 min
Histogram: 1 0 0 0 0 0 0 0 2 1
Nghost:        1233.25 ave        1252 max        1216 min
Histogram: 1 0 1 0 0 0 1 0 0 1
Neighs:        5200.25 ave        5370 max        4920 min
Histogram: 1 0 0 0 0 0 1 0 1 1

Total # of neighbors = 20801
Ave neighs/atom = 57.780556
Neighbor list builds = 3839
Dangerous builds = 0
Total wall time: 0:00:12
LAMMPS (15 Sep 2022)
OMP_NUM_THREADS environment is not set. Defaulting to 1 thread. (src/comm.cpp:98)
  using 1 OpenMP thread(s) per MPI task
Reading restart file ...
  restart file = 15 Sep 2022, LAMMPS = 15 Sep 2022
  restoring atom style atomic from restart
  orthogonal box = (0 0 0) to (6.6943295 6.6943295 6.6943295)
  1 by 2 by 2 MPI processor grid
  restoring pair style lj/cut from restart
  360 atoms
  read_restart CPU = 0.001 seconds
Setting up annealing run
Resetting global fix info from restart file:
  fix style: nvt, fix ID: 1
Generated 0 of 1 mixed pair_coeff terms from geometric mixing rule
All restart file global fix info was re-assigned
Neighbor list info ...
  update: every = 1 steps, delay = 25 steps, check = yes
  max neighbors/atom: 2000, page size: 100000
  master list distance cutoff = 3
  ghost atom cutoff = 3
  binsize = 1.5, bins = 5 5 5
  1 neighbor lists, perpetual/occasional/extra = 1 0 0
  (1) pair lj/cut, perpetual
      attributes: half, newton on
      pair build: half/bin/atomonly/newton
      stencil: half/bin/3d
      bin: standard
Setting up Verlet run ...
  Unit style    : lj
  Current step  : 0
  Time step     : 0.002
Per MPI rank memory allocation (min/avg/max) = 4.114 | 4.115 | 4.116 Mbytes
   Step          Temp          E_pair         E_mol          TotEng         Press     
         0   0.8           -6.268331       0             -5.0716644      7.9726697    
      5000   0.81658553    -6.342204       0             -5.1207281      7.5116121    
     10000   0.75360604    -6.351187       0             -5.223918       7.5932386    
     15000   0.73960264    -6.4937446      0             -5.3874224      6.5134188    
     20000   0.80699722    -6.4068686      0             -5.1997352      7.1822495    
     25000   0.76534115    -6.3346602      0             -5.1898374      7.7953819    
     30000   0.80391892    -6.2767277      0             -5.074199       8.1799236    
     35000   0.78091617    -6.3263225      0             -5.1582021      7.8437103    
     40000   0.8326385     -6.3717711      0             -5.1262827      7.4777353    
     45000   0.79374679    -6.3101046      0             -5.1227917      7.9743281    
     50000   0.80028879    -6.235332       0             -5.0382333      8.187664     
     55000   0.76572669    -6.4072066      0             -5.2618071      7.3122702    
     60000   0.82062447    -6.3948834      0             -5.1673659      7.3480919    
     65000   0.74849828    -6.3861989      0             -5.2665702      7.4136444    
     70000   0.89874692    -6.2508488      0             -4.9064732      8.2421511    
     75000   0.79472589    -6.3958532      0             -5.2070757      7.2295273    
     80000   0.7962578     -6.3650397      0             -5.1739707      7.4477134    
     85000   0.86459616    -6.3955715      0             -5.1022797      7.4147897    
     90000   0.83515147    -6.3447548      0             -5.0955074      7.6150857    
     95000   0.76307887    -6.4341371      0             -5.2926983      6.8718973    
    100000   0.76142657    -6.3482893      0             -5.209322       7.6459493    
    105000   0.79338053    -6.2868755      0             -5.1001104      8.0190145    
    110000   0.86018684    -6.3343964      0             -5.0477003      7.7574866    
    115000   0.84319583    -6.3955501      0             -5.1342696      7.4194657    
    120000   0.83741509    -6.3809956      0             -5.1283622      7.6025827    
    125000   0.7939018     -6.3725753      0             -5.1850305      7.4463825    
    130000   0.72206234    -6.3718993      0             -5.2918143      7.4280222    
    135000   0.82685741    -6.3376505      0             -5.1008097      7.7676464    
    140000   0.72224843    -6.3343833      0             -5.25402        7.45438      
    145000   0.79323137    -6.3526327      0             -5.1660908      7.6019458    
    150000   0.81376773    -6.300452       0             -5.0831911      7.8028198    
Loop time of 12.4413 on 4 procs for 150000 steps with 360 atoms

Performance: 2083387.720 tau/day, 12056.642 timesteps/s, 4.340 Matom-step/s
99.6% CPU use with 4 MPI tasks x 1 OpenMP threads

MPI task timing breakdown:
Section |  min time  |  avg time  |  max time  |%varavg| %total
---------------------------------------------------------------
Pair    | 7.7985     | 7.904      | 8.062      |   3.5 | 63.53
Neigh   | 0.60811    | 0.6125     | 0.6187     |   0.5 |  4.92
Comm    | 3.2738     | 3.4234     | 3.5265     |   5.1 | 27.52
Output  | 0.001869   | 0.0019158  | 0.0020536  |   0.2 |  0.02
Modify  | 0.35083    | 0.35584    | 0.36139    |   0.7 |  2.86
Other   |            | 0.1436     |            |       |  1.15

Nlocal:             90 ave          92 max          88 min
Histogram: 1 0 1 0 0 0 0 1 0 1
Nghost:         1223.5 ave        1239 max        1210 min
Histogram: 1 0 1 0 0 0 1 0 0 1
Neighs:           5187 ave        5220 max        5142 min
Histogram: 1 0 0 0 1 0 0 0 1 1

Total # of neighbors = 20748
Ave neighs/atom = 57.633333
Neighbor list builds = 3592
Dangerous builds = 0
Total wall time: 0:00:12
LAMMPS (15 Sep 2022)
OMP_NUM_THREADS environment is not set. Defaulting to 1 thread. (src/comm.cpp:98)
  using 1 OpenMP thread(s) per MPI task
Reading restart file ...
  restart file = 15 Sep 2022, LAMMPS = 15 Sep 2022
  restoring atom style atomic from restart
  orthogonal box = (0 0 0) to (6.6943295 6.6943295 6.6943295)
  1 by 2 by 2 MPI processor grid
  restoring pair style lj/cut from restart
  360 atoms
  read_restart CPU = 0.002 seconds
Setting up annealing run
Resetting global fix info from restart file:
  fix style: nvt, fix ID: 1
Generated 0 of 1 mixed pair_coeff terms from geometric mixing rule
All restart file global fix info was re-assigned
Neighbor list info ...
  update: every = 1 steps, delay = 25 steps, check = yes
  max neighbors/atom: 2000, page size: 100000
  master list distance cutoff = 3
  ghost atom cutoff = 3
  binsize = 1.5, bins = 5 5 5
  1 neighbor lists, perpetual/occasional/extra = 1 0 0
  (1) pair lj/cut, perpetual
      attributes: half, newton on
      pair build: half/bin/atomonly/newton
      stencil: half/bin/3d
      bin: standard
Setting up Verlet run ...
  Unit style    : lj
  Current step  : 0
  Time step     : 0.003
Per MPI rank memory allocation (min/avg/max) = 4.114 | 4.114 | 4.114 Mbytes
   Step          Temp          E_pair         E_mol          TotEng         Press     
         0   0.7           -6.300452       0             -5.2533687      7.6666777    
      6000   0.71752993    -6.518435       0             -5.4451298      6.484847     
     12000   0.72906773    -6.496368       0             -5.4058041      6.6412499    
     18000   0.71864517    -6.5332539      0             -5.4582805      6.3355556    
     24000   0.74741757    -6.5226275      0             -5.4046154      6.5497183    
     30000   0.66270666    -6.566853       0             -5.5755543      6.0376094    
     36000   0.73627241    -6.5690846      0             -5.4677438      6.0758967    
     42000   0.69988397    -6.5165119      0             -5.4696021      6.4036182    
     48000   0.72037157    -6.4877658      0             -5.41021        6.8370593    
     54000   0.68714118    -6.5064511      0             -5.4786024      6.4895433    
     60000   0.67818583    -6.5156599      0             -5.5012069      6.1740189    
     66000   0.72134673    -6.5427112      0             -5.4636967      6.3046033    
     72000   0.65106923    -6.544635       0             -5.5707439      6.2832473    
     78000   0.75771977    -6.4410666      0             -5.3076441      6.9357639    
     84000   0.67473014    -6.5793269      0             -5.570043       6.0617312    
     90000   0.71509512    -6.4985362      0             -5.4288731      6.6162805    
     96000   0.72320905    -6.5551629      0             -5.4733627      6.2856726    
    102000   0.71828692    -6.4721851      0             -5.3977476      6.6406665    
    108000   0.72057883    -6.4667949      0             -5.3889291      6.7418461    
    114000   0.70464167    -6.4938163      0             -5.4397898      6.4384063    
    120000   0.73191554    -6.4666673      0             -5.3718437      6.9164195    
    126000   0.71641745    -6.5256748      0             -5.4540337      6.5918051    
    132000   0.70839169    -6.571257       0             -5.5116211      5.9885204    
    138000   0.65786912    -6.5504749      0             -5.5664124      6.176174     
    144000   0.68450545    -6.5505424      0             -5.5266363      6.208337     
    150000   0.74163496    -6.5852489      0             -5.4758866      6.0826379    
    156000   0.71741622    -6.5905594      0             -5.5174243      5.8992665    
    162000   0.72003695    -6.5107725      0             -5.4337172      6.4407561    
    168000   0.71796542    -6.494418       0             -5.4204614      6.5194004    
    174000   0.74940192    -6.5361113      0             -5.415131       6.413028     
    180000   0.6658952     -6.5523372      0             -5.556269       6.092627     
Loop time of 15.3866 on 4 procs for 180000 steps with 360 atoms

Performance: 3032251.575 tau/day, 11698.501 timesteps/s, 4.211 Matom-step/s
99.6% CPU use with 4 MPI tasks x 1 OpenMP threads

MPI task timing breakdown:
Section |  min time  |  avg time  |  max time  |%varavg| %total
---------------------------------------------------------------
Pair    | 9.1746     | 9.5477     | 9.9918     |   9.5 | 62.05
Neigh   | 0.99127    | 1.0102     | 1.0182     |   1.1 |  6.57
Comm    | 3.8258     | 4.2576     | 4.6345     |  14.0 | 27.67
Output  | 0.0013814  | 0.0014442  | 0.0016287  |   0.3 |  0.01
Modify  | 0.41637    | 0.43257    | 0.44693    |   1.7 |  2.81
Other   |            | 0.1371     |            |       |  0.89

Nlocal:             90 ave          95 max          86 min
Histogram: 1 0 0 1 1 0 0 0 0 1
Nghost:         1254.5 ave        1264 max        1238 min
Histogram: 1 0 0 0 0 1 0 0 0 2
Neighs:           5195 ave        5432 max        5014 min
Histogram: 1 1 0 0 0 1 0 0 0 1

Total # of neighbors = 20780
Ave neighs/atom = 57.722222
Neighbor list builds = 5908
Dangerous builds = 413
Total wall time: 0:00:15
LAMMPS (15 Sep 2022)
OMP_NUM_THREADS environment is not set. Defaulting to 1 thread. (src/comm.cpp:98)
  using 1 OpenMP thread(s) per MPI task
Reading restart file ...
  restart file = 15 Sep 2022, LAMMPS = 15 Sep 2022
  restoring atom style atomic from restart
  orthogonal box = (0 0 0) to (6.6943295 6.6943295 6.6943295)
  1 by 2 by 2 MPI processor grid
  restoring pair style lj/cut from restart
  360 atoms
  read_restart CPU = 0.002 seconds
Setting up annealing run
Resetting global fix info from restart file:
  fix style: nvt, fix ID: 1
Generated 0 of 1 mixed pair_coeff terms from geometric mixing rule
All restart file global fix info was re-assigned
Neighbor list info ...
  update: every = 1 steps, delay = 25 steps, check = yes
  max neighbors/atom: 2000, page size: 100000
  master list distance cutoff = 3
  ghost atom cutoff = 3
  binsize = 1.5, bins = 5 5 5
  1 neighbor lists, perpetual/occasional/extra = 1 0 0
  (1) pair lj/cut, perpetual
      attributes: half, newton on
      pair build: half/bin/atomonly/newton
      stencil: half/bin/3d
      bin: standard
Setting up Verlet run ...
  Unit style    : lj
  Current step  : 0
  Time step     : 0.003
Per MPI rank memory allocation (min/avg/max) = 4.116 | 4.116 | 4.116 Mbytes
   Step          Temp          E_pair         E_mol          TotEng         Press     
         0   0.65          -6.5523372      0             -5.5800455      6.0736058    
